 Gaussian 09, Revision C.01,
 Gaussian 09:  EM64L-G09RevC.01 23-Sep-2011

 ---------------------
 #irc=calcfc hf/sto-3g
 ---------------------

 99/5=20,9=1/99;
 --------------
 Ammonia-Planar
 --------------
 Charge =  0 Multiplicity = 1

 SCF Done:  E(RHF) =  -55.4375650318     A.U. after    7 cycles
 SCF Done:  E(RHF) =  -55.4378558353     A.U. after    7 cycles
 SCF Done:  E(RHF) =  -55.4378946567     A.U. after    6 cycles
 SCF Done:  E(RHF) =  -55.4384697640     A.U. after    7 cycles
 SCF Done:  E(RHF) =  -55.4386009127     A.U. after    6 cycles
 SCF Done:  E(RHF) =  -55.4398035083     A.U. after    7 cycles
 SCF Done:  E(RHF) =  -55.4414508308     A.U. after    7 cycles
 SCF Done:  E(RHF) =  -55.4434363562     A.U. after    7 cycles
 SCF Done:  E(RHF) =  -55.4456548691     A.U. after    7 cycles
 SCF Done:  E(RHF) =  -55.4479765270     A.U. after    7 cycles
 SCF Done:  E(RHF) =  -55.4385373079     A.U. after    7 cycles
 SCF Done:  E(RHF) =  -55.4386453640     A.U. after    6 cycles
 SCF Done:  E(RHF) =  -55.4398647502     A.U. after    7 cycles
 SCF Done:  E(RHF) =  -55.4415306120     A.U. after    7 cycles
 SCF Done:  E(RHF) =  -55.4435293941     A.U. after    7 cycles
 SCF Done:  E(RHF) =  -55.4457552926     A.U. after    7 cycles
 SCF Done:  E(RHF) =  -55.4480780400     A.U. after    7 cycles
 SCF Done:  E(RHF) =  -55.4503453051     A.U. after    7 cycles
 SCF Done:  E(RHF) =  -55.4523898554     A.U. after    7 cycles
 SCF Done:  E(RHF) =  -55.4540348606     A.U. after    7 cycles

                          Input orientation:
 ---------------------------------------------------------------------
 Center     Atomic      Atomic             Coordinates (Angstroms)
 Number     Number       Type             X           Y           Z
 ---------------------------------------------------------------------
      1          7           0        0.000056   -0.063845    0.000032
      2          1           0       -0.000260    0.298078    0.961181
      3          1           0        0.832278    0.298078   -0.480816
      4          1           0       -0.832797    0.296625   -0.480816
 ---------------------------------------------------------------------

 Alpha  occ. eigenvalues --  -15.30090  -1.07660  -0.56655  -0.56655  -0.34529
 Alpha virt. eigenvalues --    0.61698   0.72267   0.72267

 Mulliken atomic charges:
              1
     1  N   -0.458681
     2  H    0.152894
     3  H    0.152894
     4  H    0.152894
 Sum of Mulliken atomic charges =   0.00000

 Dipole moment (field-independent basis, Debye):
    X=             -0.0015    Y=              1.7047    Z=             -0.0009  Tot=              1.7047
 Quadrupole moment (field-independent basis, Debye-Ang):
   XX=             -5.8316   YY=             -7.5700   ZZ=             -5.8316
   XY=              0.0015   XZ=              0.0000   YZ=              0.0009

  Exact polarizability:   0.000   0.000   0.000   0.000   0.000   0.000
 Approx polarizability:   4.205   0.003   1.068   0.000   0.002   4.205

 Normal termination of Gaussian 09 at Sun Sep  2 22:30:44 2018.
