 Gaussian 09, Revision C.01,
 Gaussian 09:  EM64L-G09RevC.01 23-Sep-2011

 -------------------
 #HF STO-3G opt freq
 -------------------

 99/9=1/99;
 -------------
 cis_butadiene
 -------------
 Charge =  0 Multiplicity = 1

 SCF Done:  E(RHF) =  -152.826948256     A.U. after   10 cycles
 SCF Done:  E(RHF) =  -152.955188915     A.U. after   10 cycles
 SCF Done:  E(RHF) =  -152.976934771     A.U. after   11 cycles
 SCF Done:  E(RHF) =  -153.014578517     A.U. after    9 cycles
 SCF Done:  E(RHF) =  -153.017205937     A.U. after    9 cycles
 SCF Done:  E(RHF) =  -153.017410163     A.U. after    8 cycles
 SCF Done:  E(RHF) =  -153.017442862     A.U. after    7 cycles
 SCF Done:  E(RHF) =  -153.017444119     A.U. after    7 cycles
 Optimization completed.
    -- Stationary point found.
 Normal termination of Gaussian 09 at Sat Sep 22 14:46:46 2018.

 ---------------------------------------------------------------
 #N Geom=AllCheck Guess=TCheck SCRF=Check GenChk RHF/STO-3G Freq
 ---------------------------------------------------------------

 Structure from the checkpoint file:  /scratch/cn410107.137062/Gau-20832.chk
 -------------
 cis_butadiene
 -------------
 Charge =  0 Multiplicity = 1

                         Standard orientation:
 ---------------------------------------------------------------------
 Center     Atomic      Atomic             Coordinates (Angstroms)
 Number     Number       Type             X           Y           Z
 ---------------------------------------------------------------------
      1          6           0        0.000000    1.523965   -0.498804
      2          6           0        0.000000    0.747347    0.560771
      3          6           0        0.000000   -0.747347    0.560771
      4          6           0        0.000000   -1.523965   -0.498804
      5          1           0        0.000000    2.601580   -0.409907
      6          1           0        0.000000    1.136880   -1.508140
      7          1           0        0.000000    1.199776    1.546247
      8          1           0        0.000000   -1.199776    1.546247
      9          1           0        0.000000   -2.601580   -0.409907
     10          1           0        0.000000   -1.136880   -1.508140
 ---------------------------------------------------------------------

 SCF Done:  E(RHF) =  -153.017444119     A.U. after    1 cycles

 The electronic state is 1-A1.
 Alpha  occ. eigenvalues --  -11.03150 -11.03126 -11.01815 -11.01811  -1.03454
 Alpha  occ. eigenvalues --   -0.94632  -0.78833  -0.68102  -0.62809  -0.56027
 Alpha  occ. eigenvalues --   -0.53958  -0.46773  -0.43720  -0.39658  -0.27712
 Alpha virt. eigenvalues --    0.25404   0.42252   0.59680   0.61055   0.67186
 Alpha virt. eigenvalues --    0.72373   0.74405   0.86045   0.95573   1.00385
 Alpha virt. eigenvalues --    1.11736

 Mulliken atomic charges:
              1
     1  C   -0.128713
     2  C   -0.059001
     3  C   -0.059001
     4  C   -0.128713
     5  H    0.064243
     6  H    0.062549
     7  H    0.060923
     8  H    0.060923
     9  H    0.064243
    10  H    0.062549
 Sum of Mulliken atomic charges =   0.00000

 Dipole moment (field-independent basis, Debye):
    X=              0.0000    Y=              0.0000    Z=              0.0382  Tot=              0.0382
 Quadrupole moment (field-independent basis, Debye-Ang):
   XX=            -25.1383   YY=            -22.4382   ZZ=            -22.1695
   XY=              0.0000   XZ=              0.0000   YZ=              0.0000

  Exact polarizability:   4.565   0.000  36.305   0.000   0.000  28.307
 Approx polarizability:   3.626   0.000  27.796   0.000   0.000  26.639

                     1                      2                      3
                    A2                     A1                     B1
 Frequencies --    34.1994               336.7437               588.1549
 Red. masses --     1.4921                 2.5622                 1.1957
 Frc consts  --     0.0010                 0.1712                 0.2437
 IR Inten    --     0.0000                 0.0002                 3.3093
 Raman Activ --     0.0000                 4.8852                 1.4985

                     4                      5                      6
                    B2                     A2                     A1
 Frequencies --   639.2168               896.3253              1006.1596
 Red. masses --     2.0944                 1.7401                 2.1777
 Frc consts  --     0.5042                 0.8237                 1.2989
 IR Inten    --     2.8070                 0.0000                 0.1137
 Raman Activ --     0.4789                17.3284                 1.4392

                     7                      8                      9
                    A2                     B1                     A1
 Frequencies --  1149.6503              1152.4337              1213.6410
 Red. masses --     1.3909                 1.3343                 1.3603
 Frc consts  --     1.0831                 1.0441                 1.1805
 IR Inten    --     0.0000                31.1629                 0.1336
 Raman Activ --     3.0292                 0.2469                 1.9185

                    10                     11                     12
                    A2                     B1                     B2
 Frequencies --  1245.0962              1246.5790              1282.8639
 Red. masses --     1.1123                 1.1019                 1.5624
 Frc consts  --     1.0159                 1.0088                 1.5149
 IR Inten    --     0.0000                 6.6863                 5.6262
 Raman Activ --     2.0130                 0.0061                 8.8434

                    13                     14                     15
                    B2                     A1                     B2
 Frequencies --  1528.3109              1574.0272              1700.2511
 Red. masses --     1.2532                 1.2885                 1.1503
 Frc consts  --     1.7246                 1.8809                 1.9593
 IR Inten    --     5.0748                 0.0011                 0.0059
 Raman Activ --    22.1391                16.9925                16.8182

                    16                     17                     18
                    A1                     A1                     B2
 Frequencies --  1731.9429              2026.1347              2046.3155
 Red. masses --     1.2628                 4.7992                 3.8860
 Frc consts  --     2.2317                11.6079                 9.5873
 IR Inten    --     4.3820                 0.0604                 0.5054
 Raman Activ --    18.7536                91.1880                 0.0589

                    19                     20                     21
                    B2                     A1                     B2
 Frequencies --  3652.5677              3660.4224              3709.9762
 Red. masses --     1.0661                 1.0657                 1.1005
 Frc consts  --     8.3798                 8.4126                 8.9246
 IR Inten    --    57.5789                16.9414                 6.2760
 Raman Activ --     1.5993                49.2513                22.0960

                    22                     23                     24
                    A1                     B2                     A1
 Frequencies --  3717.3633              3812.6743              3815.3322
 Red. masses --     1.1013                 1.1186                 1.1182
 Frc consts  --     8.9664                 9.5805                 9.5899
 IR Inten    --     1.0327                 0.0509                 0.1057
 Raman Activ --    88.5662                 0.4076                75.7789

 - Thermochemistry -
 -------------------
 Temperature   298.150 Kelvin.  Pressure   1.00000 Atm.
 Atom     1 has atomic number  6 and mass  12.00000

 Molecular mass:    54.04695 amu.
 Principal axes and moments of inertia in atomic units:
                           1         2         3
     Eigenvalues --    83.03024 315.29980 398.33004
           X            0.00000   0.00000   1.00000
           Y            1.00000   0.00000   0.00000
           Z            0.00000   1.00000   0.00000
 This molecule is an asymmetric top.
 Rotational symmetry number  2.
 Rotational temperatures (Kelvin)      1.04316     0.27470     0.21744
 Rotational constants (GHZ):          21.73595     5.72389     4.53077
 Zero-point vibrational energy     261781.1 (Joules/Mol)
                                   62.56718 (Kcal/Mol)
 Warning -- explicit consideration of   3 degrees of freedom as
           vibrations may cause significant error
 Vibrational temperatures:     49.21   484.50   846.22   919.69  1289.61
          (Kelvin)           1447.64  1654.09  1658.09  1746.16  1791.41
                             1793.55  1845.75  2198.90  2264.67  2446.28
                             2491.88  2915.15  2944.19  5255.22  5266.52
                             5337.82  5348.45  5485.58  5489.41

 Zero-point correction=                           0.099707 (Hartree/Particle)
 Thermal correction to Energy=                    0.104291
 Thermal correction to Enthalpy=                  0.105235
 Thermal correction to Gibbs Free Energy=         0.072678
 Sum of electronic and zero-point Energies=           -152.917737
 Sum of electronic and thermal Energies=              -152.913153
 Sum of electronic and thermal Enthalpies=            -152.912209
 Sum of electronic and thermal Free Energies=         -152.944766

                     E (Thermal)             CV                S
                      KCal/Mol        Cal/Mol-Kelvin    Cal/Mol-Kelvin
 Total                   65.443             13.829             68.522
 Electronic               0.000              0.000              0.000
 Translational            0.889              2.981             37.884
 Rotational               0.889              2.981             22.482
 Vibrational             63.666              7.867              8.156
 Vibration     1          0.594              1.983              5.570
 Vibration     2          0.717              1.602              1.228
 Vibration     3          0.945              1.057              0.470

 Optimization completed.
    -- Stationary point found.
 Normal termination of Gaussian 09 at Sat Sep 22 14:46:48 2018.
