 Gaussian 09, Revision C.01,
 Gaussian 09:  EM64L-G09RevC.01 23-Sep-2011

 -------------------
 #HF STO-3G opt freq
 -------------------

 99/9=1/99;
 -------------------
 Formic Acid Monomer
 -------------------
 Charge =  0 Multiplicity = 1

 SCF Done:  E(RHF) =  -186.186598643     A.U. after   12 cycles
 SCF Done:  E(RHF) =  -186.215552190     A.U. after   11 cycles
 SCF Done:  E(RHF) =  -186.217801585     A.U. after   10 cycles
 SCF Done:  E(RHF) =  -186.217878036     A.U. after   10 cycles
 SCF Done:  E(RHF) =  -186.217884112     A.U. after    9 cycles
 Optimization completed.
    -- Stationary point found.
 Normal termination of Gaussian 09 at Sat Sep 22 15:35:25 2018.

 ---------------------------------------------------------------
 #N Geom=AllCheck Guess=TCheck SCRF=Check GenChk RHF/STO-3G Freq
 ---------------------------------------------------------------

 Structure from the checkpoint file:  /scratch/cn410107.137191/Gau-43771.chk
 -------------------
 Formic Acid Monomer
 -------------------
 Charge =  0 Multiplicity = 1

                         Standard orientation:
 ---------------------------------------------------------------------
 Center     Atomic      Atomic             Coordinates (Angstroms)
 Number     Number       Type             X           Y           Z
 ---------------------------------------------------------------------
      1          6           0        0.000000    0.442090    0.000000
      2          8           0        1.170647    0.120124    0.000000
      3          8           0       -1.046087   -0.466724    0.000000
      4          1           0       -0.388302    1.475148    0.000000
      5          1           0       -0.608181   -1.354886    0.000000
 ---------------------------------------------------------------------

 SCF Done:  E(RHF) =  -186.217884112     A.U. after    1 cycles

 The electronic state is 1-A'.
 Alpha  occ. eigenvalues --  -20.31459 -20.28179 -11.18010  -1.38259  -1.28425
 Alpha  occ. eigenvalues --   -0.80086  -0.62496  -0.59428  -0.53374  -0.47590
 Alpha  occ. eigenvalues --   -0.36488  -0.36118
 Alpha virt. eigenvalues --    0.29618   0.55452   0.64929   0.69664   0.94863

 Mulliken atomic charges:
              1
     1  C    0.255064
     2  O   -0.250876
     3  O   -0.285485
     4  H    0.073984
     5  H    0.207314
 Sum of Mulliken atomic charges =   0.00000

 Dipole moment (field-independent basis, Debye):
    X=             -0.5971    Y=             -0.1843    Z=              0.0000  Tot=              0.6249
 Quadrupole moment (field-independent basis, Debye-Ang):
   XX=            -19.8576   YY=            -12.3160   ZZ=            -14.8110
   XY=             -0.4069   XZ=              0.0000   YZ=              0.0000

  Exact polarizability:  12.163  -0.205  11.184   0.000   0.000   2.466
 Approx polarizability:  16.327  -1.309   8.706   0.000   0.000   1.748

                     1                      2                      3
                    A"                     A'                     A"
 Frequencies --   599.6069               633.7774              1096.2214
 Red. masses --     1.2846                 4.2130                 1.5004
 Frc consts  --     0.2721                 0.9970                 1.0623
 IR Inten    --   109.9781                42.9446                 0.2995
 Raman Activ --     4.1856                 3.1630                 0.7424

                     4                      5                      6
                    A'                     A'                     A'
 Frequencies --  1249.3607              1565.7761              1639.3304
 Red. masses --     3.3817                 1.4603                 1.2290
 Frc consts  --     3.1100                 2.1093                 1.9460
 IR Inten    --    97.4062                26.1290                 4.1549
 Raman Activ --     1.7143                 3.2308                13.6196

                     7                      8                      9
                    A'                     A'                     A'
 Frequencies --  2117.4046              3588.7098              4248.4107
 Red. masses --     7.1985                 1.0976                 1.0666
 Frc consts  --    19.0151                 8.3287                11.3421
 IR Inten    --   116.9972                 6.0628                 8.9187
 Raman Activ --     6.5395                39.3573                47.1033

 - Thermochemistry -
 -------------------
 Temperature   298.150 Kelvin.  Pressure   1.00000 Atm.
 Atom     1 has atomic number  6 and mass  12.00000

 Molecular mass:    46.00548 amu.
 Principal axes and moments of inertia in atomic units:
                           1         2         3
     Eigenvalues --    24.58189 154.07694 178.65883
           X            0.95458  -0.29797   0.00000
           Y            0.29797   0.95458   0.00000
           Z            0.00000   0.00000   1.00000
 This molecule is an asymmetric top.
 Rotational symmetry number  1.
 Rotational temperatures (Kelvin)      3.52348     0.56215     0.48480
 Rotational constants (GHZ):          73.41752    11.71325    10.10161
 Zero-point vibrational energy     100119.0 (Joules/Mol)
                                   23.92903 (Kcal/Mol)
 Warning -- explicit consideration of   1 degrees of freedom as
           vibrations may cause significant error
 Vibrational temperatures:    862.70   911.86  1577.22  1797.55  2252.80
          (Kelvin)           2358.63  3046.47  5163.35  6112.51

 Zero-point correction=                           0.038133 (Hartree/Particle)
 Thermal correction to Energy=                    0.041314
 Thermal correction to Enthalpy=                  0.042258
 Thermal correction to Gibbs Free Energy=         0.013986
 Sum of electronic and zero-point Energies=           -186.179751
 Sum of electronic and thermal Energies=              -186.176570
 Sum of electronic and thermal Enthalpies=            -186.175626
 Sum of electronic and thermal Free Energies=         -186.203898

                     E (Thermal)             CV                S
                      KCal/Mol        Cal/Mol-Kelvin    Cal/Mol-Kelvin
 Total                   25.925              8.526             59.504
 Electronic               0.000              0.000              0.000
 Translational            0.889              2.981             37.404
 Rotational               0.889              2.981             21.142
 Vibrational             24.148              2.564              0.959
 Vibration     1          0.958              1.033              0.450

 Optimization completed.
    -- Stationary point found.
 Normal termination of Gaussian 09 at Sat Sep 22 15:35:27 2018.
