 Gaussian 09, Revision C.01,
 Gaussian 09:  EM64L-G09RevC.01 23-Sep-2011

 -------------------
 #HF STO-3G opt freq
 -------------------

 99/9=1/99;
 -----------------
 Formic Acid Dimer
 -----------------
 Charge =  0 Multiplicity = 1

 SCF Done:  E(RHF) =  -372.386394336     A.U. after   12 cycles
 SCF Done:  E(RHF) =  -372.435173526     A.U. after   11 cycles
 SCF Done:  E(RHF) =  -372.450769368     A.U. after   12 cycles
 SCF Done:  E(RHF) =  -372.454740543     A.U. after   11 cycles
 SCF Done:  E(RHF) =  -372.458002204     A.U. after   11 cycles
 SCF Done:  E(RHF) =  -372.459237083     A.U. after   10 cycles
 SCF Done:  E(RHF) =  -372.459695171     A.U. after   11 cycles
 SCF Done:  E(RHF) =  -372.459805623     A.U. after   10 cycles
 SCF Done:  E(RHF) =  -372.459882747     A.U. after   10 cycles
 SCF Done:  E(RHF) =  -372.459918492     A.U. after   10 cycles
 SCF Done:  E(RHF) =  -372.459918965     A.U. after    9 cycles
 Optimization completed.
    -- Stationary point found.
 Normal termination of Gaussian 09 at Sat Sep 22 15:29:51 2018.

 ---------------------------------------------------------------
 #N Geom=AllCheck Guess=TCheck SCRF=Check GenChk RHF/STO-3G Freq
 ---------------------------------------------------------------

 Structure from the checkpoint file:  /scratch/cn410107.137177/Gau-41668.chk
 -----------------
 Formic Acid Dimer
 -----------------
 Charge =  0 Multiplicity = 1

                         Standard orientation:
 ---------------------------------------------------------------------
 Center     Atomic      Atomic             Coordinates (Angstroms)
 Number     Number       Type             X           Y           Z
 ---------------------------------------------------------------------
      1          6           0       -0.149007    1.838973    0.000000
      2          8           0       -1.135917    1.103505    0.000000
      3          8           0        1.135917    1.432297    0.000000
      4          1           0       -0.234683    2.942234    0.000000
      5          1           0        1.146326    0.422862    0.000000
      6          1           0       -1.146326   -0.422862    0.000000
      7          8           0       -1.135917   -1.432297    0.000000
      8          6           0        0.149007   -1.838973    0.000000
      9          8           0        1.135917   -1.103505    0.000000
     10          1           0        0.234683   -2.942234    0.000000
 ---------------------------------------------------------------------

 SCF Done:  E(RHF) =  -372.459918965     A.U. after    1 cycles

 The electronic state is 1-AG.
 Alpha  occ. eigenvalues --  -20.29067 -20.29065 -20.27859 -20.27858 -11.19912
 Alpha  occ. eigenvalues --  -11.19911  -1.39949  -1.37802  -1.29995  -1.27509
 Alpha  occ. eigenvalues --   -0.84015  -0.78527  -0.68726  -0.63279  -0.61838
 Alpha  occ. eigenvalues --   -0.55328  -0.54416  -0.53809  -0.51882  -0.43083
 Alpha  occ. eigenvalues --   -0.37018  -0.36283  -0.35597  -0.35032
 Alpha virt. eigenvalues --    0.27855   0.28056   0.57462   0.61895   0.64879
 Alpha virt. eigenvalues --    0.71176   0.73693   0.74333   0.91838   0.97337

 Mulliken atomic charges:
              1
     1  C    0.281542
     2  O   -0.304501
     3  O   -0.328045
     4  H    0.078136
     5  H    0.272868
     6  H    0.272868
     7  O   -0.328045
     8  C    0.281542
     9  O   -0.304501
    10  H    0.078136
 Sum of Mulliken atomic charges =   0.00000

 Dipole moment (field-independent basis, Debye):
    X=              0.0000    Y=              0.0000    Z=              0.0000  Tot=              0.0000
 Quadrupole moment (field-independent basis, Debye-Ang):
   XX=            -38.1200   YY=            -26.6678   ZZ=            -29.4810
   XY=             -2.5051   XZ=              0.0000   YZ=              0.0000

  Exact polarizability:  23.432   2.064  29.336   0.000   0.000   4.749
 Approx polarizability:  30.997   6.305  23.495   0.000   0.000   3.444

                     1                      2                      3
                    AU                     AG                     AU
 Frequencies --    71.4475               186.0801               203.1358
 Red. masses --    14.8486                 8.6647                 2.1998
 Frc consts  --     0.0447                 0.1768                 0.0535
 IR Inten    --     0.0586                 0.0000                 9.5326
 Raman Activ --     0.0000                 0.4686                 0.0000

                     4                      5                      6
                    AG                     BG                     BU
 Frequencies --   271.3524               279.4559               425.9289
 Red. masses --     9.5960                 2.9159                 6.6497
 Frc consts  --     0.4163                 0.1342                 0.7108
 IR Inten    --     0.0000                 0.0000               114.5598
 Raman Activ --     0.2115                 4.3758                 0.0000

                     7                      8                      9
                    AG                     BU                     AU
 Frequencies --   701.4498               745.3500              1048.6854
 Red. masses --     5.3695                 6.5853                 1.5075
 Frc consts  --     1.5566                 2.1555                 0.9768
 IR Inten    --     0.0000                42.7396               160.7079
 Raman Activ --     5.4783                 0.0000                 0.0000

                    10                     11                     12
                    BG                     BG                     AU
 Frequencies --  1071.7803              1173.7779              1211.4625
 Red. masses --     1.3520                 1.1559                 1.1125
 Frc consts  --     0.9150                 0.9383                 0.9620
 IR Inten    --     0.0000                 0.0000               129.6078
 Raman Activ --     5.8507                 0.3208                 0.0000

                    13                     14                     15
                    BU                     AG                     BU
 Frequencies --  1333.7864              1343.1190              1590.1032
 Red. masses --     3.3460                 3.1480                 1.4171
 Frc consts  --     3.5071                 3.3459                 2.1111
 IR Inten    --   201.8066                 0.0000                89.8556
 Raman Activ --     0.0000                 4.9166                 0.0000

                    16                     17                     18
                    AG                     BU                     AG
 Frequencies --  1597.5175              1782.8264              1811.7632
 Red. masses --     1.4175                 1.1662                 1.3622
 Frc consts  --     2.1315                 2.1839                 2.6345
 IR Inten    --     0.0000                24.3294                 0.0000
 Raman Activ --    16.3170                 0.0000                11.3329

                    19                     20                     21
                    AG                     BU                     AG
 Frequencies --  1982.5064              2067.4659              3571.3403
 Red. masses --     4.0018                 6.5558                 1.0978
 Frc consts  --     9.2669                16.5101                 8.2499
 IR Inten    --     0.0000               408.3372                 0.0000
 Raman Activ --    28.6881                 0.0000               178.9127

                    22                     23                     24
                    BU                     AG                     BU
 Frequencies --  3571.9764              3707.7880              3904.6699
 Red. masses --     1.0955                 1.0783                 1.0653
 Frc consts  --     8.2352                 8.7342                 9.5699
 IR Inten    --    29.8647                 0.0000              2585.3556
 Raman Activ --     0.0000               201.3797                 0.0000

 - Thermochemistry -
 -------------------
 Temperature   298.150 Kelvin.  Pressure   1.00000 Atm.
 Atom     1 has atomic number  6 and mass  12.00000

 Molecular mass:    92.01096 amu.
 Principal axes and moments of inertia in atomic units:
                           1         2         3
     Eigenvalues --   305.81786 727.648971033.46683
           X            0.04200   0.99912   0.00000
           Y            0.99912  -0.04200   0.00000
           Z            0.00000   0.00000   1.00000
 This molecule is an asymmetric top.
 Rotational symmetry number  2.
 Rotational temperatures (Kelvin)      0.28322     0.11903     0.08381
 Rotational constants (GHZ):           5.90136     2.48024     1.74630
 Zero-point vibrational energy     213262.9 (Joules/Mol)
                                   50.97105 (Kcal/Mol)
 Warning -- explicit consideration of   6 degrees of freedom as
           vibrations may cause significant error
 Vibrational temperatures:    102.80   267.73   292.27   390.42   402.07
          (Kelvin)            612.82  1009.23  1072.39  1508.82  1542.05
                             1688.80  1743.02  1919.02  1932.45  2287.80
                             2298.47  2565.09  2606.72  2852.38  2974.62
                             5138.36  5139.27  5334.67  5617.94

 Zero-point correction=                           0.081228 (Hartree/Particle)
 Thermal correction to Energy=                    0.087509
 Thermal correction to Enthalpy=                  0.088453
 Thermal correction to Gibbs Free Energy=         0.051216
 Sum of electronic and zero-point Energies=           -372.378691
 Sum of electronic and thermal Energies=              -372.372410
 Sum of electronic and thermal Enthalpies=            -372.371466
 Sum of electronic and thermal Free Energies=         -372.408703

                     E (Thermal)             CV                S
                      KCal/Mol        Cal/Mol-Kelvin    Cal/Mol-Kelvin
 Total                   54.912             19.540             78.371
 Electronic               0.000              0.000              0.000
 Translational            0.889              2.981             39.470
 Rotational               0.889              2.981             25.556
 Vibrational             53.135             13.578             13.345
 Vibration     1          0.598              1.968              4.113
 Vibration     2          0.632              1.859              2.267
 Vibration     3          0.639              1.835              2.105
 Vibration     4          0.675              1.726              1.588
 Vibration     5          0.680              1.712              1.537
 Vibration     6          0.788              1.414              0.872

 Optimization completed.
    -- Stationary point found.
 Normal termination of Gaussian 09 at Sat Sep 22 15:29:53 2018.
