 Gaussian 09, Revision C.01,
 Gaussian 09:  EM64L-G09RevC.01 23-Sep-2011

 -------------------
 #HF STO-3G opt freq
 -------------------

 99/9=1/99;
 ---------------
 trans_butadiene
 ---------------
 Charge =  0 Multiplicity = 1

 SCF Done:  E(RHF) =  -152.927500961     A.U. after   10 cycles
 SCF Done:  E(RHF) =  -152.994155818     A.U. after    9 cycles
 SCF Done:  E(RHF) =  -153.018490491     A.U. after   10 cycles
 SCF Done:  E(RHF) =  -153.019630197     A.U. after    8 cycles
 SCF Done:  E(RHF) =  -153.020364428     A.U. after    8 cycles
 Optimization completed.
    -- Stationary point found.
 Normal termination of Gaussian 09 at Sat Sep 22 14:46:53 2018.

 ---------------------------------------------------------------
 #N Geom=AllCheck Guess=TCheck SCRF=Check GenChk RHF/STO-3G Freq
 ---------------------------------------------------------------

 Structure from the checkpoint file:  /scratch/cn410107.137062/Gau-20969.chk
 ---------------
 trans_butadiene
 ---------------
 Charge =  0 Multiplicity = 1

                         Standard orientation:
 ---------------------------------------------------------------------
 Center     Atomic      Atomic             Coordinates (Angstroms)
 Number     Number       Type             X           Y           Z
 ---------------------------------------------------------------------
      1          6           0        0.617484    1.729400    0.000000
      2          6           0        0.617484    0.415974    0.000000
      3          6           0       -0.617484   -0.415974    0.000000
      4          6           0       -0.617484   -1.729400    0.000000
      5          1           0        1.534454    2.302340    0.000000
      6          1           0       -0.299985    2.302899    0.000000
      7          1           0        1.554404   -0.130689    0.000000
      8          1           0       -1.554404    0.130689    0.000000
      9          1           0       -1.534454   -2.302340    0.000000
     10          1           0        0.299985   -2.302899    0.000000
 ---------------------------------------------------------------------

 SCF Done:  E(RHF) =  -153.020364428     A.U. after    1 cycles

 The electronic state is 1-AG.
 Alpha  occ. eigenvalues --  -11.03209 -11.03187 -11.01792 -11.01791  -1.03528
 Alpha  occ. eigenvalues --   -0.95241  -0.76856  -0.70912  -0.59645  -0.59153
 Alpha  occ. eigenvalues --   -0.50440  -0.49783  -0.43255  -0.39906  -0.27613
 Alpha virt. eigenvalues --    0.25605   0.42029   0.57848   0.66961   0.68126
 Alpha virt. eigenvalues --    0.69606   0.70825   0.88548   0.93657   1.01894
 Alpha virt. eigenvalues --    1.10663

 Mulliken atomic charges:
              1
     1  C   -0.130544
     2  C   -0.056965
     3  C   -0.056965
     4  C   -0.130544
     5  H    0.063799
     6  H    0.061858
     7  H    0.061852
     8  H    0.061852
     9  H    0.063799
    10  H    0.061858
 Sum of Mulliken atomic charges =   0.00000

 Dipole moment (field-independent basis, Debye):
    X=              0.0000    Y=              0.0000    Z=              0.0000  Tot=              0.0000
 Quadrupole moment (field-independent basis, Debye-Ang):
   XX=            -22.2415   YY=            -22.4882   ZZ=            -25.1458
   XY=             -0.1648   XZ=              0.0000   YZ=              0.0000

  Exact polarizability:  21.626   4.879  49.181   0.000   0.000   4.633
 Approx polarizability:  17.821   2.289  40.129   0.000   0.000   3.681

                     1                      2                      3
                    AU                     BU                     AG
 Frequencies --   153.2400               333.0553               568.1910
 Red. masses --     2.5149                 2.1490                 2.7104
 Frc consts  --     0.0348                 0.1404                 0.5156
 IR Inten    --     0.0512                 1.5487                 0.0000
 Raman Activ --     0.0000                 0.0000                 5.6460

                     4                      5                      6
                    AU                     BG                     AG
 Frequencies --   610.9029               911.8055              1017.9003
 Red. masses --     1.1048                 1.7506                 1.8885
 Frc consts  --     0.2429                 0.8575                 1.1528
 IR Inten    --     3.4937                 0.0000                 0.0000
 Raman Activ --     0.0000                19.0337                 0.1159

                     7                      8                      9
                    AU                     BG                     BU
 Frequencies --  1147.1347              1152.0469              1156.2301
 Red. masses --     1.3452                 1.3592                 1.1905
 Frc consts  --     1.0429                 1.0629                 0.9377
 IR Inten    --    32.6749                 0.0000                 1.1864
 Raman Activ --     0.0000                 3.9908                 0.0000

                    10                     11                     12
                    BG                     AU                     AG
 Frequencies --  1226.5570              1264.8994              1395.4171
 Red. masses --     1.1198                 1.0962                 1.8254
 Frc consts  --     0.9926                 1.0334                 2.0941
 IR Inten    --     0.0000                 7.7651                 0.0000
 Raman Activ --     2.8013                 0.0000                23.7771

                    13                     14                     15
                    BU                     AG                     BU
 Frequencies --  1525.9201              1539.1231              1674.0692
 Red. masses --     1.2773                 1.3232                 1.2014
 Frc consts  --     1.7523                 1.8468                 1.9837
 IR Inten    --     7.5353                 0.0000                 0.9339
 Raman Activ --     0.0000                49.3760                 0.0000

                    16                     17                     18
                    AG                     BU                     AG
 Frequencies --  1736.4397              1999.7738              2070.6759
 Red. masses --     1.2054                 3.9262                 4.8099
 Frc consts  --     2.1414                 9.2508                12.1509
 IR Inten    --     0.0000                 0.1800                 0.0000
 Raman Activ --    56.0897                 0.0000               167.4749

                    19                     20                     21
                    BU                     AG                     AG
 Frequencies --  3648.6565              3653.2178              3709.7217
 Red. masses --     1.0658                 1.0660                 1.1039
 Frc consts  --     8.3596                 8.3819                 8.9509
 IR Inten    --   100.8189                 0.0000                 0.0000
 Raman Activ --     0.0000                62.7402                83.8560

                    22                     23                     24
                    BU                     BU                     AG
 Frequencies --  3712.9192              3810.7257              3810.7844
 Red. masses --     1.0999                 1.1186                 1.1189
 Frc consts  --     8.9339                 9.5704                 9.5736
 IR Inten    --     8.7034                 0.1067                 0.0000
 Raman Activ --     0.0000                 0.0000                97.7292

 - Thermochemistry -
 -------------------
 Temperature   298.150 Kelvin.  Pressure   1.00000 Atm.
 Atom     1 has atomic number  6 and mass  12.00000

 Molecular mass:    54.04695 amu.
 Principal axes and moments of inertia in atomic units:
                           1         2         3
     Eigenvalues --    42.73248 405.22370 447.95618
           X            0.39866   0.91710   0.00000
           Y            0.91710  -0.39866   0.00000
           Z            0.00000   0.00000   1.00000
 This molecule is an asymmetric top.
 Rotational symmetry number  2.
 Rotational temperatures (Kelvin)      2.02688     0.21374     0.19335
 Rotational constants (GHZ):          42.23347     4.45369     4.02883
 Zero-point vibrational energy     262158.1 (Joules/Mol)
                                   62.65728 (Kcal/Mol)
 Warning -- explicit consideration of   4 degrees of freedom as
           vibrations may cause significant error
 Vibrational temperatures:    220.48   479.19   817.50   878.95  1311.88
          (Kelvin)           1464.53  1650.47  1657.54  1663.56  1764.74
                             1819.91  2007.69  2195.46  2214.45  2408.61
                             2498.35  2877.22  2979.24  5249.60  5256.16
                             5337.46  5342.06  5482.78  5482.86

 Zero-point correction=                           0.099851 (Hartree/Particle)
 Thermal correction to Energy=                    0.104230
 Thermal correction to Enthalpy=                  0.105174
 Thermal correction to Gibbs Free Energy=         0.074111
 Sum of electronic and zero-point Energies=           -152.920514
 Sum of electronic and thermal Energies=              -152.916134
 Sum of electronic and thermal Enthalpies=            -152.915190
 Sum of electronic and thermal Free Energies=         -152.946254

                     E (Thermal)             CV                S
                      KCal/Mol        Cal/Mol-Kelvin    Cal/Mol-Kelvin
 Total                   65.405             13.826             65.379
 Electronic               0.000              0.000              0.000
 Translational            0.889              2.981             37.884
 Rotational               0.889              2.981             22.188
 Vibrational             63.628              7.864              5.307
 Vibration     1          0.619              1.899              2.632
 Vibration     2          0.715              1.609              1.245
 Vibration     3          0.924              1.100              0.508
 Vibration     4          0.970              1.009              0.431

 Optimization completed.
    -- Stationary point found.
 Normal termination of Gaussian 09 at Sat Sep 22 14:46:55 2018.
